Program Version,EnergyPlus, Version 9.5.0-de239b2e5f, YMD=2022.10.29 21:57
1,5,Environment Title[],Latitude[deg],Longitude[deg],Time Zone[],Elevation[m]
2,8,Day of Simulation[],Month[],Day of Month[],DST Indicator[1=yes 0=no],Hour[],StartMinute[],EndMinute[],DayType
3,5,Cumulative Day of Simulation[],Month[],Day of Month[],DST Indicator[1=yes 0=no],DayType  ! When Daily Report Variables Requested
4,2,Cumulative Days of Simulation[],Month[]  ! When Monthly Report Variables Requested
5,1,Cumulative Days of Simulation[] ! When Run Period Report Variables Requested
6,1,Calendar Year of Simulation[] ! When Annual Report Variables Requested
7,1,Environment,Site Outdoor Air Drybulb Temperature [C] !TimeStep
8,1,ZONE ONE,Zone Windows Total Transmitted Solar Radiation Rate [W] !TimeStep
9,1,ZN001:WALL001,Surface Outside Face Sunlit Fraction [] !TimeStep
10,1,ZN001:WALL001,Surface Outside Face Incident Solar Radiation Rate per Area [W/m2] !TimeStep
11,1,ZN001:WALL001:WIN001,Surface Outside Face Sunlit Fraction [] !TimeStep
12,1,ZN001:WALL001:WIN001,Surface Outside Face Incident Solar Radiation Rate per Area [W/m2] !TimeStep
13,1,ZN001:WALL001:WIN001,Surface Window Transmitted Solar Radiation Rate [W] !TimeStep
14,1,ZN001:WALL001,Surface Inside Face Temperature [C] !TimeStep
15,1,ZN001:WALL001,Surface Outside Face Temperature [C] !TimeStep
16,1,ZN001:WALL001:WIN001,Surface Inside Face Temperature [C] !TimeStep
17,1,ZN001:WALL001:WIN001,Surface Outside Face Temperature [C] !TimeStep
18,1,ZONE ONE,Zone Mean Air Temperature [C] !TimeStep
End of Data Dictionary
1,RUN PERIOD 1,  41.98, -87.92,  -6.00, 201.00
2,1, 1, 1, 0, 1, 0.00,15.00,Tuesday
7,-4.324999999999999
8,0.0
9,0.0
10,0.0
11,0.0
12,0.0
13,0.0
14,-3.2361858819044277
15,-6.065435981486777
16,-3.861393879322577
17,-5.937580398831699
18,-3.0179624568507039
2,1, 1, 1, 0, 1,15.00,30.00,Tuesday
7,-6.949999999999999
8,0.0
9,0.0
10,0.0
11,0.0
12,0.0
13,0.0
14,-3.4009326892662088
15,-8.53135001389286
16,-4.506235449868541
17,-8.02535323295615
18,-3.084752026752706
2,1, 1, 1, 0, 1,30.00,45.00,Tuesday
7,-9.575
8,0.0
9,0.0
10,0.0
11,0.0
12,0.0
13,0.0
14,-3.5891014314278606
15,-11.00891616207233
16,-5.141350044587966
17,-10.119050756946195
18,-3.1874171675381568
2,1, 1, 1, 0, 1,45.00,60.00,Tuesday
7,-12.2
8,0.0
9,0.0
10,0.0
11,0.0
12,0.0
13,0.0
14,-3.79230824115111
15,-13.492714680283914
16,-5.787763078448052
17,-12.222270672954096
18,-3.317234452144929
2,1, 1, 1, 0, 2, 0.00,15.00,Tuesday
7,-12.075
8,0.0
9,0.0
10,0.0
11,0.0
12,0.0
13,0.0
14,-3.8314578456643879
15,-13.295117740443443
16,-5.842021088367517
17,-12.094708757384467
18,-3.43650133668406
2,1, 1, 1, 0, 2,15.00,30.00,Tuesday
7,-11.95
8,0.0
9,0.0
10,0.0
11,0.0
12,0.0
13,0.0
14,-3.8880863570918744
15,-13.117581328745061
16,-5.849180726655959
17,-11.943174327633244
18,-3.525328906810388
2,1, 1, 1, 0, 2,30.00,45.00,Tuesday
7,-11.825
8,0.0
9,0.0
10,0.0
11,0.0
12,0.0
13,0.0
14,-3.928235939507184
15,-12.938743083518118
16,-5.852836065686574
17,-11.790851836714126
18,-3.586135486013011
2,1, 1, 1, 0, 2,45.00,60.00,Tuesday
7,-11.7
8,0.0
9,0.0
10,0.0
11,0.0
12,0.0
13,0.0
14,-3.9557891536918738
15,-12.75993763964006
16,-5.840229755354699
17,-11.645427561365864
18,-3.628441900277562
2,1, 1, 1, 0, 3, 0.00,15.00,Tuesday
7,-11.549999999999999
8,0.0
9,0.0
10,0.0
11,0.0
12,0.0
13,0.0
14,-3.98263938868861
15,-12.637775756431492
16,-5.831925023624194
17,-11.518591573644244
18,-3.6614706939997898
2,1, 1, 1, 0, 3,15.00,30.00,Tuesday
7,-11.399999999999999
8,0.0
9,0.0
10,0.0
11,0.0
12,0.0
13,0.0
14,-4.005454305654196
15,-12.51710050320205
16,-5.821257819804828
17,-11.393690026999139
18,-3.6905544182559457
2,1, 1, 1, 0, 3,30.00,45.00,Tuesday
7,-11.25
8,0.0
9,0.0
10,0.0
11,0.0
12,0.0
13,0.0
14,-4.026812793585447
15,-12.398149240770695
16,-5.8083732454765599
17,-11.269362664724895
18,-3.7177605727971407
2,1, 1, 1, 0, 3,45.00,60.00,Tuesday
7,-11.1
8,0.0
9,0.0
10,0.0
11,0.0
12,0.0
13,0.0
14,-4.047441927810675
15,-12.28099150294983
16,-5.794695053248915
17,-11.14586200041731
18,-3.743704056761744
2,1, 1, 1, 0, 4, 0.00,15.00,Tuesday
7,-11.1
8,0.0
9,0.0
10,0.0
11,0.0
12,0.0
13,0.0
14,-4.071205306780527
15,-12.246980563167775
16,-5.816668442622131
17,-11.144460593648205
18,-3.7691124916781408
2,1, 1, 1, 0, 4,15.00,30.00,Tuesday
7,-11.1
8,0.0
9,0.0
10,0.0
11,0.0
12,0.0
13,0.0
14,-4.094603939446506
15,-12.21428471954733
16,-5.837300205799181
17,-11.14650166995699
18,-3.794420831184107
2,1, 1, 1, 0, 4,30.00,45.00,Tuesday
7,-11.1
8,0.0
9,0.0
10,0.0
11,0.0
12,0.0
13,0.0
14,-4.118001567301016
15,-12.183379387777528
16,-5.857253908093639
17,-11.149457588678729
18,-3.819735084365942
2,1, 1, 1, 0, 4,45.00,60.00,Tuesday
7,-11.1
8,0.0
9,0.0
10,0.0
11,0.0
12,0.0
13,0.0
14,-4.141419950909418
15,-12.154129205150781
16,-5.876966393652083
17,-11.152634930628551
18,-3.845026147899443
2,1, 1, 1, 0, 5, 0.00,15.00,Tuesday
7,-10.975
8,0.0
9,0.0
10,0.0
11,0.0
12,0.0
13,0.0
14,-4.159125968150649
15,-12.03149919643153
16,-5.866941947141697
17,-11.059612550031716
18,-3.8694471128255469
2,1, 1, 1, 0, 5,15.00,30.00,Tuesday
7,-10.85
8,0.0
9,0.0
10,0.0
11,0.0
12,0.0
13,0.0
14,-4.176560495772214
15,-11.909006676356368
16,-5.856621926527623
17,-10.960236261830574
18,-3.8925214351268977
2,1, 1, 1, 0, 5,30.00,45.00,Tuesday
7,-10.725
8,0.0
9,0.0
10,0.0
11,0.0
12,0.0
13,0.0
14,-4.193195767746205
15,-11.78650113368057
16,-5.845964664127109
17,-10.860129036103843
18,-3.914343947144535
2,1, 1, 1, 0, 5,45.00,60.00,Tuesday
7,-10.6
8,0.0
9,0.0
10,0.0
11,0.0
12,0.0
13,0.0
14,-4.209093009823703
15,-11.664004641502772
16,-5.834632524699373
17,-10.759776516320813
18,-3.9352019407881517
2,1, 1, 1, 0, 6, 0.00,15.00,Tuesday
7,-10.6
8,0.0
9,0.0
10,0.0
11,0.0
12,0.0
13,0.0
14,-4.2327342774360139
15,-11.664575729898339
16,-5.852555342070218
17,-10.757988308681945
18,-3.9565130339092069
2,1, 1, 1, 0, 6,15.00,30.00,Tuesday
7,-10.6
8,0.0
9,0.0
10,0.0
11,0.0
12,0.0
13,0.0
14,-4.255996382722501
15,-11.665009353371075
16,-5.871810149474527
17,-10.760483249722313
18,-3.979091800587278
2,1, 1, 1, 0, 6,30.00,45.00,Tuesday
7,-10.6
8,0.0
9,0.0
10,0.0
11,0.0
12,0.0
13,0.0
14,-4.279714173177381
15,-11.6654779570984
16,-5.890909404471756
17,-10.764058638091399
18,-4.0028350739211799
2,1, 1, 1, 0, 6,45.00,60.00,Tuesday
7,-10.6
8,0.0
9,0.0
10,0.0
11,0.0
12,0.0
13,0.0
14,-4.303815300329461
15,-11.665950263196813
16,-5.910259506831039
17,-10.768064737698922
18,-4.027314218699334
2,1, 1, 1, 0, 7, 0.00,15.00,Tuesday
7,-10.6
8,0.0
9,0.0
10,0.0
11,0.0
12,0.0
13,0.0
14,-4.325493687903323
15,-11.637964338315238
16,-5.928749003215955
17,-10.769859809604498
18,-4.051772487569322
2,1, 1, 1, 0, 7,15.00,30.00,Tuesday
7,-10.6
8,0.0
9,0.0
10,0.0
11,0.0
12,0.0
13,0.0
14,-4.3473547877555129
15,-11.611430403921585
16,-5.946404972836831
17,-10.770855890678604
18,-4.0757797406865
2,1, 1, 1, 0, 7,30.00,45.00,Tuesday
7,-10.6
8,0.0
9,0.0
10,0.0
11,0.0
12,0.0
13,0.0
14,-4.369034396699002
15,-11.586235671079042
16,-5.963990662954075
17,-10.771693406876466
18,-4.0993177630734
2,1, 1, 1, 0, 7,45.00,60.00,Tuesday
7,-10.6
8,0.0
9,0.0
10,0.0
11,0.0
12,0.0
13,0.0
14,-4.390475477143132
15,-11.562298241430698
16,-5.981391124751781
17,-10.77243093679806
18,-4.122503960334114
2,1, 1, 1, 0, 8, 0.00,15.00,Tuesday
7,-10.45
8,0.0
9,0.0
10,0.0
11,0.0
12,0.0
13,0.0
14,-4.41323052190733
15,-11.516245984937747
16,-5.98547254854202
17,-10.744825581506575
18,-4.145880633485989
2,1, 1, 1, 0, 8,15.00,30.00,Tuesday
7,-10.3
8,11.491455641975012
9,1.0
10,22.819555959623899
11,1.0
12,22.819555959623899
13,11.491455641975012
14,-4.3452254599213779
15,-9.844075266043302
16,-5.734537470274461
17,-10.503710352191036
18,-4.160306338920372
2,1, 1, 1, 0, 8,30.00,45.00,Tuesday
7,-10.15
8,56.74260596080494
9,1.0
10,109.75755355442667
11,1.0
12,109.75755355442667
13,56.74260596080494
14,-4.031331450088878
15,-3.4987423912356019
16,-4.6924362828634689
17,-9.648033385975282
18,-4.141798834178171
2,1, 1, 1, 0, 8,45.00,60.00,Tuesday
7,-10.0
8,104.04505477979899
9,1.0
10,195.8764694434918
11,1.0
12,195.8764694434918
13,104.04505477979899
14,-3.6758216734663344
15,2.9959802461157576
16,-3.5242503370747046
17,-8.746695629629244
18,-4.085277271998704
2,1, 1, 1, 0, 9, 0.00,15.00,Tuesday
7,-9.725
8,152.01715929425155
9,1.0
10,278.97248314719988
11,1.0
12,278.97248314719988
13,152.01715929425155
14,-3.4118106382119408
15,8.191922097271713
16,-2.467554678658189
17,-7.936836366208013
18,-3.995616215536842
2,1, 1, 1, 0, 9,15.00,30.00,Tuesday
7,-9.45
8,203.3784746018625
9,1.0
10,364.91995730569456
11,1.0
12,364.91995730569456
13,203.3784746018625
14,-3.1188885045305629
15,13.274066927800586
16,-1.4111558491310917
17,-7.123867766110493
18,-3.880558030578562
2,1, 1, 1, 0, 9,30.00,45.00,Tuesday
7,-9.175
8,238.3555160452371
9,1.0
10,420.35879993239237
11,1.0
12,420.35879993239237
13,238.3555160452371
14,-2.9438080454318986
15,16.036131099051667
16,-0.6970704364049425
17,-6.592986974110829
18,-3.7524522198535785
2,1, 1, 1, 0, 9,45.00,60.00,Tuesday
7,-8.9
8,274.9080977413424
9,1.0
10,478.00138373643099
11,1.0
12,478.00138373643099
13,274.9080977413424
14,-2.7326286492619356
15,19.032579784330776
16,0.015316791401005503
17,-6.053473191872968
18,-3.616490876624704
2,1, 1, 1, 0,10, 0.00,15.00,Tuesday
7,-8.350000000000002
8,312.4388302131692
9,1.0
10,536.9185644770597
11,1.0
12,536.9185644770597
13,312.4388302131692
14,-2.5882829932509194
15,20.158048918177639
16,0.7922238290648238
17,-5.3316578666999139
18,-3.471023388253313
2,1, 1, 1, 0,10,15.00,30.00,Tuesday
7,-7.800000000000001
8,351.36982863559788
9,1.0
10,598.0969199229219
11,1.0
12,598.0969199229219
13,351.36982863559788
14,-2.42730962516214
15,21.41675823936527
16,1.5737502852992407
17,-4.602244967286083
18,-3.318990005059249
2,1, 1, 1, 0,10,30.00,45.00,Tuesday
7,-7.25
8,377.52952179418505
9,1.0
10,637.6133352894237
11,1.0
12,637.6133352894237
13,377.52952179418505
14,-2.3267976667937835
15,21.481805729811314
16,2.1380500812871334
17,-4.062317426783295
18,-3.170127994679467
2,1, 1, 1, 0,10,45.00,60.00,Tuesday
7,-6.7
8,403.3000247609816
9,1.0
10,676.6412284283772
11,1.0
12,676.6412284283772
13,403.3000247609816
14,-2.2143857785797378
15,21.646240680973606
16,2.6790596240015249
17,-3.5167703672021846
18,-3.0297063047628867
2,1, 1, 1, 0,11, 0.00,15.00,Tuesday
7,-6.275
8,428.58238939835396
9,1.0
10,715.0112779846514
11,1.0
12,715.0112779846514
13,428.58238939835396
14,-2.0248740496310999
15,23.74254211647374
16,3.227183119320898
17,-2.8744195415860078
18,-2.8942136970566234
2,1, 1, 1, 0,11,15.00,30.00,Tuesday
7,-5.85
8,453.2377888169917
9,1.0
10,752.5077794605232
11,1.0
12,752.5077794605232
13,453.2377888169917
14,-1.8515395846872696
15,25.67680693833867
16,3.770020720659602
17,-2.252639591958882
18,-2.7596951579325839
2,1, 1, 1, 0,11,30.00,45.00,Tuesday
7,-5.425
8,446.6260196270988
9,1.0
10,742.5988714321785
11,1.0
12,742.5988714321785
13,446.6260196270988
14,-1.773961364635725
15,25.528368127882805
16,3.84379894680319
17,-1.9480284538994966
18,-2.6350076781313218
2,1, 1, 1, 0,11,45.00,60.00,Tuesday
7,-5.0
8,436.7909232848721
9,1.0
10,727.8169025450712
11,1.0
12,727.8169025450712
13,436.7909232848721
14,-1.695914062083102
15,25.297964436557707
16,3.8527273143222375
17,-1.6670812477999562
18,-2.5262061025802207
2,1, 1, 1, 0,12, 0.00,15.00,Tuesday
7,-4.575
8,419.7748252630619
9,1.0
10,700.3759009170325
11,1.0
12,700.3759009170325
13,419.7748252630619
14,-1.6496578588956428
15,24.554492331806438
16,3.7487757434792
17,-1.4204572058082477
18,-2.4353895643621366
2,1, 1, 1, 0,12,15.00,30.00,Tuesday
7,-4.15
8,406.67686623739845
9,1.0
10,681.6705029034473
11,1.0
12,681.6705029034473
13,406.67686623739845
14,-1.589190742190886
15,24.223058690061355
16,3.712876480816931
17,-1.1248211800735817
18,-2.3584792776122684
2,1, 1, 1, 0,12,30.00,45.00,Tuesday
7,-3.7249999999999998
8,356.21678303458045
9,1.0
10,602.01865277251
11,1.0
12,602.01865277251
13,356.21678303458045
14,-1.6788005035217418
15,21.194714186920839
16,3.0849901452395445
17,-1.2024881782972444
18,-2.305364846189742
2,1, 1, 1, 0,12,45.00,60.00,Tuesday
7,-3.3
8,290.45075906421615
9,1.0
10,493.55004396206007
11,1.0
12,493.55004396206007
13,290.45075906421615
14,-1.824686727781339
15,17.015675170417997
16,2.1396152068843437
17,-1.4658242998417564
18,-2.284581814711784
2,1, 1, 1, 0,13, 0.00,15.00,Tuesday
7,-3.0249999999999996
8,238.5225089667731
9,1.0
10,412.335026418112
11,1.0
12,412.335026418112
13,238.5225089667731
14,-1.921061779306261
15,14.169947146051849
16,1.4002385365010924
17,-1.6501624940086118
18,-2.289861643977897
2,1, 1, 1, 0,13,15.00,30.00,Tuesday
7,-2.75
8,173.61053038999305
9,1.0
10,305.94037763660148
11,1.0
12,305.94037763660148
13,173.61053038999305
14,-2.1012024057609888
15,9.996639647329165
16,0.39390056485262905
17,-2.003081283291408
18,-2.316912505613999
2,1, 1, 1, 0,13,30.00,45.00,Tuesday
7,-2.475
8,157.9688391550547
9,1.0
10,281.0763483922329
11,1.0
12,281.0763483922329
13,157.9688391550547
14,-2.1023669779265377
15,9.48146160713292
16,0.19983788460558572
17,-1.848354504076724
18,-2.348134914302329
2,1, 1, 1, 0,13,45.00,60.00,Tuesday
7,-2.2
8,142.6502957482623
9,1.0
10,256.7721209415886
11,1.0
12,256.7721209415886
13,142.6502957482623
14,-2.1162058013008497
15,8.872715000708704
16,0.0345293626924672
17,-1.6771338058287029
18,-2.3735900415630857
2,1, 1, 1, 0,14, 0.00,15.00,Tuesday
7,-1.9250000000000003
8,116.20925896596586
9,1.0
10,210.73276284570657
11,1.0
12,210.73276284570657
13,116.20925896596586
14,-2.1748226097526146
15,7.323069669750987
16,-0.3686829174102968
17,-1.697306551844406
18,-2.394012426226736
2,1, 1, 1, 0,14,15.00,30.00,Tuesday
7,-1.6500000000000002
8,102.64403919985284
9,1.0
10,189.38488290342594
11,1.0
12,189.38488290342594
13,102.64403919985284
14,-2.1795758779587866
15,6.913532309127839
16,-0.529233212087604
17,-1.5735985427072024
18,-2.4088037381518569
2,1, 1, 1, 0,14,30.00,45.00,Tuesday
7,-1.375
8,98.07703964280968
9,1.0
10,179.3940297802914
11,1.0
12,179.3940297802914
13,98.07703964280968
14,-2.1655318939069736
15,7.029836260517991
16,-0.5489273060993014
17,-1.3626711896715734
18,-2.4163924096519384
2,1, 1, 1, 0,14,45.00,60.00,Tuesday
7,-1.1
8,93.38421660807669
9,1.0
10,169.43349014176136
11,1.0
12,169.43349014176136
13,93.38421660807669
14,-2.152869502352422
15,7.124664599108077
16,-0.5700970926360469
17,-1.1536980182322623
18,-2.4173036785992187
2,1, 1, 1, 0,15, 0.00,15.00,Tuesday
7,-1.1
8,98.16436411013703
9,1.0
10,178.15692317953907
11,1.0
12,178.15692317953907
13,98.16436411013703
14,-2.114010682522139
15,7.935725227010753
16,-0.4709825098101419
17,-1.0815998147479036
18,-2.412023580671305
2,1, 1, 1, 0,15,15.00,30.00,Tuesday
7,-1.1
8,92.1896422599342
9,1.0
10,166.40516310952945
11,1.0
12,166.40516310952945
13,92.1896422599342
14,-2.1311099828359327
15,7.57124993535543
16,-0.5889954754292148
17,-1.1628160594377164
18,-2.4059205258224849
2,1, 1, 1, 0,15,30.00,45.00,Tuesday
7,-1.1
8,77.44094997960687
9,1.0
10,140.8967369711617
11,1.0
12,140.8967369711617
13,77.44094997960687
14,-2.191742514466398
15,6.3616132004912189
16,-0.8758126750499287
17,-1.372862960830048
18,-2.4060847104504847
2,1, 1, 1, 0,15,45.00,60.00,Tuesday
7,-1.1
8,63.46310812266782
9,1.0
10,116.57355796743004
11,1.0
12,116.57355796743004
13,63.46310812266782
14,-2.258736140532414
15,5.1475934260666869
16,-1.1641719336813595
17,-1.592741931909984
18,-2.4150173509514278
2,1, 1, 1, 0,16, 0.00,15.00,Tuesday
7,-1.1
8,50.14666200481952
9,1.0
10,93.14939272689483
11,1.0
12,93.14939272689483
13,50.14666200481952
14,-2.3187092537858229
15,4.083727401700758
16,-1.4372826417718443
17,-1.768788553882132
18,-2.4322757348927976
2,1, 1, 1, 0,16,15.00,30.00,Tuesday
7,-1.1
8,30.993609962854117
9,1.0
10,57.94047897402063
11,1.0
12,57.94047897402063
13,30.993609962854117
14,-2.4403506687965708
15,1.9454548272294925
16,-1.859119696958146
17,-2.0668165157798059
18,-2.4602943812223065
2,1, 1, 1, 0,16,30.00,45.00,Tuesday
7,-1.1
8,23.913208309890277
9,1.0
10,45.38251793443488
11,1.0
12,45.38251793443488
13,23.913208309890277
14,-2.4865919790244397
15,1.315066227280264
16,-2.0338642321860336
17,-2.1805696434349786
18,-2.4943021088808687
2,1, 1, 1, 0,16,45.00,60.00,Tuesday
7,-1.1
8,16.621819796319284
9,1.0
10,32.02625108222755
11,1.0
12,32.02625108222755
13,16.621819796319284
14,-2.555524364292277
15,0.4309126655730484
16,-2.2143712769605488
17,-2.310111049079069
18,-2.530707335391474
2,1, 1, 1, 0,17, 0.00,15.00,Tuesday
7,-1.1
8,9.090217665822389
9,1.0
10,17.762198626050539
11,1.0
12,17.762198626050539
13,9.090217665822389
14,-2.65384868580402
15,-0.8460764287760669
16,-2.4490870070668508
17,-2.549235224455515
18,-2.5711041575764859
2,1, 1, 1, 0,17,15.00,30.00,Tuesday
7,-1.1
8,0.0
9,0.0
10,0.0
11,0.0
12,0.0
13,0.0
14,-2.7953379043446375
15,-2.691516805867317
16,-2.723234709512667
17,-2.750014275561057
18,-2.623036744647886
2,1, 1, 1, 0,17,30.00,45.00,Tuesday
7,-1.1
8,0.0
9,0.0
10,0.0
11,0.0
12,0.0
13,0.0
14,-2.8176451267346147
15,-2.836205360454003
16,-2.8073567415923437
17,-2.856012488548572
18,-2.6799199441324199
2,1, 1, 1, 0,17,45.00,60.00,Tuesday
7,-1.1
8,0.0
9,0.0
10,0.0
11,0.0
12,0.0
13,0.0
14,-2.8554557106464446
15,-3.047600878736835
16,-2.8587524476337196
17,-2.9622025751392586
18,-2.732783729622788
2,1, 1, 1, 0,18, 0.00,15.00,Tuesday
7,-1.25
8,0.0
9,0.0
10,0.0
11,0.0
12,0.0
13,0.0
14,-2.8852543138062947
15,-3.192738619676582
16,-2.922582370203372
17,-3.1009165832591636
18,-2.7781697356772434
2,1, 1, 1, 0,18,15.00,30.00,Tuesday
7,-1.4
8,0.0
9,0.0
10,0.0
11,0.0
12,0.0
13,0.0
14,-2.913697015579771
15,-3.345120987884631
16,-2.9784655759062277
17,-3.230005632215466
18,-2.816770970417489
2,1, 1, 1, 0,18,30.00,45.00,Tuesday
7,-1.5499999999999999
8,0.0
9,0.0
10,0.0
11,0.0
12,0.0
13,0.0
14,-2.9399961575727358
15,-3.496695840097615
16,-3.0310660136224216
17,-3.3529619871430897
18,-2.8507625615966587
2,1, 1, 1, 0,18,45.00,60.00,Tuesday
7,-1.7
8,0.0
9,0.0
10,0.0
11,0.0
12,0.0
13,0.0
14,-2.965217310540729
15,-3.6484361355666534
16,-3.0869217198788876
17,-3.4890557947947515
18,-2.8810104223433417
2,1, 1, 1, 0,19, 0.00,15.00,Tuesday
7,-1.825
8,0.0
9,0.0
10,0.0
11,0.0
12,0.0
13,0.0
14,-2.9604742578618947
15,-3.4694840122941756
16,-3.084680150346969
17,-3.4461964472227466
18,-2.904449412462442
2,1, 1, 1, 0,19,15.00,30.00,Tuesday
7,-1.9500000000000002
8,0.0
9,0.0
10,0.0
11,0.0
12,0.0
13,0.0
14,-2.9541624334529126
15,-3.3756041055424115
16,-3.078372369460226
17,-3.428404186730745
18,-2.9190865149085938
2,1, 1, 1, 0,19,30.00,45.00,Tuesday
7,-2.075
8,0.0
9,0.0
10,0.0
11,0.0
12,0.0
13,0.0
14,-2.9531570547457557
15,-3.442144259714659
16,-3.103381841484179
17,-3.4946153688674146
18,-2.926423921344695
2,1, 1, 1, 0,19,45.00,60.00,Tuesday
7,-2.2
8,0.0
9,0.0
10,0.0
11,0.0
12,0.0
13,0.0
14,-2.9485023137569437
15,-3.3956688018001657
16,-3.09870657312257
17,-3.4949062370576486
18,-2.9292021193645496
2,1, 1, 1, 0,20, 0.00,15.00,Tuesday
7,-1.9250000000000003
8,0.0
9,0.0
10,0.0
11,0.0
12,0.0
13,0.0
14,-2.925492808059109
15,-3.087802487648284
16,-3.0146536723128749
17,-3.239755689161427
18,-2.9282853563603066
2,1, 1, 1, 0,20,15.00,30.00,Tuesday
7,-1.6500000000000002
8,0.0
9,0.0
10,0.0
11,0.0
12,0.0
13,0.0
14,-2.89954699846624
15,-2.7831204163739375
16,-2.925819590462993
17,-2.981183671408189
18,-2.924477962147693
2,1, 1, 1, 0,20,30.00,45.00,Tuesday
7,-1.375
8,0.0
9,0.0
10,0.0
11,0.0
12,0.0
13,0.0
14,-2.8754961740325126
15,-2.4823626726559424
16,-2.835399772628705
17,-2.7221065340233396
18,-2.9179569844676775
2,1, 1, 1, 0,20,45.00,60.00,Tuesday
7,-1.1
8,0.0
9,0.0
10,0.0
11,0.0
12,0.0
13,0.0
14,-2.8499345359084295
15,-2.182014242511637
16,-2.7479399021535757
17,-2.4626961162205136
18,-2.909112588988274
2,1, 1, 1, 0,21, 0.00,15.00,Tuesday
7,-1.25
8,0.0
9,0.0
10,0.0
11,0.0
12,0.0
13,0.0
14,-2.8773762037619097
15,-2.488364131966036
16,-2.8176831485979507
17,-2.6982970532852734
18,-2.9019900395262838
2,1, 1, 1, 0,21,15.00,30.00,Tuesday
7,-1.4
8,0.0
9,0.0
10,0.0
11,0.0
12,0.0
13,0.0
14,-2.90958259780733
15,-2.7185766446948937
16,-2.882119102592128
17,-2.8738956500240535
18,-2.900890042677242
2,1, 1, 1, 0,21,30.00,45.00,Tuesday
7,-1.5499999999999999
8,0.0
9,0.0
10,0.0
11,0.0
12,0.0
13,0.0
14,-2.958241941167664
15,-3.0968733363621467
16,-2.981887443782057
17,-3.1346728764578986
18,-2.908411671691766
2,1, 1, 1, 0,21,45.00,60.00,Tuesday
7,-1.7
8,0.0
9,0.0
10,0.0
11,0.0
12,0.0
13,0.0
14,-3.0045076182996786
15,-3.583568486828451
16,-3.0922086728245405
17,-3.425184343801959
18,-2.925727838529413
2,1, 1, 1, 0,22, 0.00,15.00,Tuesday
7,-1.5499999999999999
8,0.0
9,0.0
10,0.0
11,0.0
12,0.0
13,0.0
14,-2.9635263859898095
15,-3.0515346381211678
16,-3.0113739505655987
17,-3.1181570218931258
18,-2.9410344307860054
2,1, 1, 1, 0,22,15.00,30.00,Tuesday
7,-1.4
8,0.0
9,0.0
10,0.0
11,0.0
12,0.0
13,0.0
14,-2.927709275906197
15,-2.6912996811506777
16,-2.9166543228413959
17,-2.861641225892754
18,-2.9466954805584617
2,1, 1, 1, 0,22,30.00,45.00,Tuesday
7,-1.25
8,0.0
9,0.0
10,0.0
11,0.0
12,0.0
13,0.0
14,-2.898871873670048
15,-2.4580621089078824
16,-2.846561170089501
17,-2.679991746256974
18,-2.9434408052154898
2,1, 1, 1, 0,22,45.00,60.00,Tuesday
7,-1.1
8,0.0
9,0.0
10,0.0
11,0.0
12,0.0
13,0.0
14,-2.8694491621922895
15,-2.151898555195022
16,-2.7579842475017246
17,-2.4352328671494094
18,-2.93431087185013
2,1, 1, 1, 0,23, 0.00,15.00,Tuesday
7,-1.25
8,0.0
9,0.0
10,0.0
11,0.0
12,0.0
13,0.0
14,-2.895774943943529
15,-2.4562570940056709
16,-2.839258900846062
17,-2.7153012952370547
18,-2.926088102181218
2,1, 1, 1, 0,23,15.00,30.00,Tuesday
7,-1.4
8,0.0
9,0.0
10,0.0
11,0.0
12,0.0
13,0.0
14,-2.9248752918207447
15,-2.76119694996515
16,-2.9411284549410086
17,-3.0048929278163998
18,-2.923255039288339
2,1, 1, 1, 0,23,30.00,45.00,Tuesday
7,-1.5499999999999999
8,0.0
9,0.0
10,0.0
11,0.0
12,0.0
13,0.0
14,-2.9595152517066816
15,-3.0678054081981469
16,-3.0430006740902515
17,-3.2940683784285058
18,-2.9269178416207368
2,1, 1, 1, 0,23,45.00,60.00,Tuesday
7,-1.7
8,0.0
9,0.0
10,0.0
11,0.0
12,0.0
13,0.0
14,-2.9884187376953554
15,-3.3713728724689169
16,-3.143104845322455
17,-3.5831433630289668
18,-2.937261125370325
2,1, 1, 1, 0,24, 0.00,15.00,Tuesday
7,-1.7
8,0.0
9,0.0
10,0.0
11,0.0
12,0.0
13,0.0
14,-2.9982922462090078
15,-3.4243871161925365
16,-3.1705129587700755
17,-3.6379215127487329
18,-2.950808704607875
2,1, 1, 1, 0,24,15.00,30.00,Tuesday
7,-1.7
8,0.0
9,0.0
10,0.0
11,0.0
12,0.0
13,0.0
14,-3.010520914550539
15,-3.478614159300263
16,-3.1938235625483459
17,-3.693205184717044
18,-2.964576166881337
2,1, 1, 1, 0,24,30.00,45.00,Tuesday
7,-1.7
8,0.0
9,0.0
10,0.0
11,0.0
12,0.0
13,0.0
14,-3.023082715269853
15,-3.532757054728345
16,-3.21802230834345
17,-3.74887221621168
18,-2.977517868559581
2,1, 1, 1, 0,24,45.00,60.00,Tuesday
7,-1.7
8,0.0
9,0.0
10,0.0
11,0.0
12,0.0
13,0.0
14,-3.035620753488178
15,-3.5868833394847225
16,-3.2422358085721045
17,-3.804497776233461
18,-2.9896791010157965
End of Data
 Number of Records Written=        1152
